<?xml version="1.0"?>
<VTKFile type="UnstructuredGrid" version="0.1" byte_order="LittleEndian" compressor="vtkZLibDataCompressor">
  <UnstructuredGrid>
    <Piece NumberOfPoints="36" NumberOfCells="25">
      <Points>
        <DataArray type="Float32" NumberOfComponents="3" format="ascii">
          0  0  0
          1  0  0
          2  0  0
          3  0  0
          4  0  0
          5  0  0
          0  1  0
          1  1  0
          2  1  0
          3  1  0
          4  1  0
          5  1  0
          0  2  0
          1  2  0
          2  2  0
          3  2  0
          4  2  0
          5  2  0
          0  3  0
          1  3  0
          2  3  0
          3  3  0
          4  3  0
          5  3  0
          0  4  0
          1  4  0
          2  4  0
          3  4  0
          4  4  0
          5  4  0
          0  5  0
          1  5  0
          2  5  0
          3  5  0
          4  5  0
          5  5  0
        </DataArray>
      </Points>
      <Cells>
        <DataArray type="Int32" Name="connectivity" format="ascii">
         0 1 6 7 
         6 7 12 13 
         12 13 18 19 
         18 19 24 25 
         24 25 30 31 
         1 2 7 8 
         7 8 13 14 
         13 14 19 20 
         19 20 25 26 
         25 26 31 32 
         2 3 8 9 
         8 9 14 15 
         14 15 20 21 
         20 21 26 27 
         26 27 32 33 
         3 4 9 10 
         9 10 15 16 
         15 16 21 22 
         21 22 27 28 
         27 28 33 34 
         4 5 10 11 
         10 11 16 17 
         16 17 22 23 
         22 23 28 29 
         28 29 34 35 
        </DataArray>
        <DataArray type="Int32" Name="offsets" format="ascii">
         4
         8
         12
         16
         20
         24
         28
         32
         36
         40
         44
         48
         52
         56
         60
         64
         68
         72
         76
         80
         84
         88
         92
         96
         100
        </DataArray>
        <DataArray type="UInt8" Name="types" format="ascii">
         8
         8
         8
         8
         8
         8
         8
         8
         8
         8
         8
         8
         8
         8
         8
         8
         8
         8
         8
         8
         8
         8
         8
         8
         8
        </DataArray>
      </Cells>
      <PointData Scalars="rho" Vectors="U f">
        <DataArray type="Float32" Name="rho" format="ascii">
          360
          360
          360
          36
          36
          36
          360
          360
          360
          36
          36
          36
          360
          360
          360
          36
          36
          36
          360
          360
          360
          36
          36
          36
          360
          360
          360
          36
          36
          36
          360
          360
          360
          36
          36
          36
        </DataArray>
        <DataArray type="Float32" Name="U"  NumberOfComponents="3" format="ascii">
          0 0 0 
          0 0 0 
          0 0 0 
          0 0 0 
          0 0 0 
          0 0 0 
          0 0 0 
          0 0 0 
          0 0 0 
          0 0 0 
          0 0 0 
          0 0 0 
          0 0 0 
          0 0 0 
          0 0 0 
          0 0 0 
          0 0 0 
          0 0 0 
          0 0 0 
          0 0 0 
          0 0 0 
          0 0 0 
          0 0 0 
          0 0 0 
          0 0 0 
          0 0 0 
          0 0 0 
          0 0 0 
          0 0 0 
          0 0 0 
          0 0 0 
          0 0 0 
          0 0 0 
          0 0 0 
          0 0 0 
          0 0 0 
        </DataArray>
        <DataArray type="Float32" Name="f"  NumberOfComponents="9" format="ascii">
	  0 10 20 30 40 50 60 70 80 
	  0 10 20 30 40 50 60 70 80 
	  0 10 20 30 40 50 60 70 80 
	  0 1 2 3 4 5 6 7 8 
	  0 1 2 3 4 5 6 7 8 
	  0 1 2 3 4 5 6 7 8 
	  0 10 20 30 40 50 60 70 80 
	  0 10 20 30 40 50 60 70 80 
	  0 10 20 30 40 50 60 70 80 
	  0 1 2 3 4 5 6 7 8 
	  0 1 2 3 4 5 6 7 8 
	  0 1 2 3 4 5 6 7 8 
	  0 10 20 30 40 50 60 70 80 
	  0 10 20 30 40 50 60 70 80 
	  0 10 20 30 40 50 60 70 80 
	  0 1 2 3 4 5 6 7 8 
	  0 1 2 3 4 5 6 7 8 
	  0 1 2 3 4 5 6 7 8 
	  0 10 20 30 40 50 60 70 80 
	  0 10 20 30 40 50 60 70 80 
	  0 10 20 30 40 50 60 70 80 
	  0 1 2 3 4 5 6 7 8 
	  0 1 2 3 4 5 6 7 8 
	  0 1 2 3 4 5 6 7 8 
	  0 10 20 30 40 50 60 70 80 
	  0 10 20 30 40 50 60 70 80 
	  0 10 20 30 40 50 60 70 80 
	  0 1 2 3 4 5 6 7 8 
	  0 1 2 3 4 5 6 7 8 
	  0 1 2 3 4 5 6 7 8 
	  0 10 20 30 40 50 60 70 80 
	  0 10 20 30 40 50 60 70 80 
	  0 10 20 30 40 50 60 70 80 
	  0 1 2 3 4 5 6 7 8 
	  0 1 2 3 4 5 6 7 8 
	  0 1 2 3 4 5 6 7 8 
        </DataArray>
      </PointData>
    </Piece>
  </UnstructuredGrid>
</VTKFile>
