<?xml version="1.0"?>
<VTKFile type="UnstructuredGrid" version="0.1" byte_order="LittleEndian" compressor="vtkZLibDataCompressor">
  <UnstructuredGrid>
    <Piece NumberOfPoints="8" NumberOfCells="3">
      <Points>
        <DataArray type="Float32" NumberOfComponents="3" format="ascii">
          0  0  0
          1  0  0
          2  0  0
          0  1  0
          1  1  0
          2  1  0
          0  2  0
          1  2  0
        </DataArray>
      </Points>
      <Cells>
        <DataArray type="Int32" Name="connectivity" format="ascii">
         0 1 3 4 
         3 4 6 7 
         1 2 4 5 
        </DataArray>
        <DataArray type="Int32" Name="offsets" format="ascii">
         4
         8
         12
        </DataArray>
        <DataArray type="UInt8" Name="types" format="ascii">
         8
         8
         8
        </DataArray>
      </Cells>
      <PointData Scalars="scalar" Vectors="vector lb">
        <DataArray type="Float32" Name="scalar" format="ascii">
          1
          -1
          -1
          1
          -1
          -1
          1
          -1
        </DataArray>
        <DataArray type="Float32" Name="vector"  NumberOfComponents="3" format="ascii">
          1 2 3 
          1 2 3 
          1 2 3 
          1 2 3 
          1 2 3 
          1 2 3 
          1 2 3 
          1 2 3 
        </DataArray>
        <DataArray type="Float32" Name="lb"  NumberOfComponents="9" format="ascii">
          0 1 2 3 4 5 6 7 8 
          0 1 2 3 4 5 6 7 8 
          0 1 2 3 4 5 6 7 8 
          0 1 2 3 4 5 6 7 8 
          0 1 2 3 4 5 6 7 8 
          0 1 2 3 4 5 6 7 8 
          0 1 2 3 4 5 6 7 8 
          0 1 2 3 4 5 6 7 8 
        </DataArray>
      </PointData>
    </Piece>
  </UnstructuredGrid>
</VTKFile>
