<?xml version="1.0"?>
<VTKFile type="UnstructuredGrid" version="0.1" byte_order="LittleEndian" compressor="vtkZLibDataCompressor">
  <UnstructuredGrid>
    <Piece NumberOfPoints="20605" NumberOfCells="20101">
      <Points>
        <DataArray type="Float32" NumberOfComponents="3" format="ascii">
          100  100  0
          101  100  0
          102  100  0
          103  100  0
          104  100  0
          105  100  0
          106  100  0
          107  100  0
          108  100  0
          109  100  0
          110  100  0
          111  100  0
          112  100  0
          113  100  0
          114  100  0
          115  100  0
          116  100  0
          117  100  0
          118  100  0
          119  100  0
          120  100  0
          121  100  0
          122  100  0
          123  100  0
          124  100  0
          125  100  0
          126  100  0
          127  100  0
          128  100  0
          129  100  0
          130  100  0
          131  100  0
          132  100  0
          133  100  0
          134  100  0
          135  100  0
          136  100  0
          137  100  0
          138  100  0
          139  100  0
          140  100  0
          141  100  0
          142  100  0
          143  100  0
          144  100  0
          145  100  0
          146  100  0
          147  100  0
          148  100  0
          149  100  0
          150  100  0
          151  100  0
          152  100  0
          153  100  0
          154  100  0
          155  100  0
          156  100  0
          157  100  0
          158  100  0
          159  100  0
          160  100  0
          161  100  0
          162  100  0
          163  100  0
          164  100  0
          165  100  0
          166  100  0
          167  100  0
          168  100  0
          169  100  0
          170  100  0
          171  100  0
          172  100  0
          173  100  0
          174  100  0
          175  100  0
          176  100  0
          177  100  0
          178  100  0
          179  100  0
          180  100  0
          181  100  0
          182  100  0
          183  100  0
          184  100  0
          185  100  0
          186  100  0
          187  100  0
          188  100  0
          189  100  0
          190  100  0
          191  100  0
          192  100  0
          193  100  0
          194  100  0
          195  100  0
          196  100  0
          197  100  0
          198  100  0
          199  100  0
          200  100  0
          0  101  0
          1  101  0
          2  101  0
          3  101  0
          4  101  0
          5  101  0
          6  101  0
          7  101  0
          8  101  0
          9  101  0
          10  101  0
          11  101  0
          12  101  0
          13  101  0
          14  101  0
          15  101  0
          16  101  0
          17  101  0
          18  101  0
          19  101  0
          20  101  0
          21  101  0
          22  101  0
          23  101  0
          24  101  0
          25  101  0
          26  101  0
          27  101  0
          28  101  0
          29  101  0
          30  101  0
          31  101  0
          32  101  0
          33  101  0
          34  101  0
          35  101  0
          36  101  0
          37  101  0
          38  101  0
          39  101  0
          40  101  0
          41  101  0
          42  101  0
          43  101  0
          44  101  0
          45  101  0
          46  101  0
          47  101  0
          48  101  0
          49  101  0
          50  101  0
          51  101  0
          52  101  0
          53  101  0
          54  101  0
          55  101  0
          56  101  0
          57  101  0
          58  101  0
          59  101  0
          60  101  0
          61  101  0
          62  101  0
          63  101  0
          64  101  0
          65  101  0
          66  101  0
          67  101  0
          68  101  0
          69  101  0
          70  101  0
          71  101  0
          72  101  0
          73  101  0
          74  101  0
          75  101  0
          76  101  0
          77  101  0
          78  101  0
          79  101  0
          80  101  0
          81  101  0
          82  101  0
          83  101  0
          84  101  0
          85  101  0
          86  101  0
          87  101  0
          88  101  0
          89  101  0
          90  101  0
          91  101  0
          92  101  0
          93  101  0
          94  101  0
          95  101  0
          96  101  0
          97  101  0
          98  101  0
          99  101  0
          100  101  0
          101  101  0
          102  101  0
          103  101  0
          104  101  0
          105  101  0
          106  101  0
          107  101  0
          108  101  0
          109  101  0
          110  101  0
          111  101  0
          112  101  0
          113  101  0
          114  101  0
          115  101  0
          116  101  0
          117  101  0
          118  101  0
          119  101  0
          120  101  0
          121  101  0
          122  101  0
          123  101  0
          124  101  0
          125  101  0
          126  101  0
          127  101  0
          128  101  0
          129  101  0
          130  101  0
          131  101  0
          132  101  0
          133  101  0
          134  101  0
          135  101  0
          136  101  0
          137  101  0
          138  101  0
          139  101  0
          140  101  0
          141  101  0
          142  101  0
          143  101  0
          144  101  0
          145  101  0
          146  101  0
          147  101  0
          148  101  0
          149  101  0
          150  101  0
          151  101  0
          152  101  0
          153  101  0
          154  101  0
          155  101  0
          156  101  0
          157  101  0
          158  101  0
          159  101  0
          160  101  0
          161  101  0
          162  101  0
          163  101  0
          164  101  0
          165  101  0
          166  101  0
          167  101  0
          168  101  0
          169  101  0
          170  101  0
          171  101  0
          172  101  0
          173  101  0
          174  101  0
          175  101  0
          176  101  0
          177  101  0
          178  101  0
          179  101  0
          180  101  0
          181  101  0
          182  101  0
          183  101  0
          184  101  0
          185  101  0
          186  101  0
          187  101  0
          188  101  0
          189  101  0
          190  101  0
          191  101  0
          192  101  0
          193  101  0
          194  101  0
          195  101  0
          196  101  0
          197  101  0
          198  101  0
          199  101  0
          200  101  0
          0  102  0
          1  102  0
          2  102  0
          3  102  0
          4  102  0
          5  102  0
          6  102  0
          7  102  0
          8  102  0
          9  102  0
          10  102  0
          11  102  0
          12  102  0
          13  102  0
          14  102  0
          15  102  0
          16  102  0
          17  102  0
          18  102  0
          19  102  0
          20  102  0
          21  102  0
          22  102  0
          23  102  0
          24  102  0
          25  102  0
          26  102  0
          27  102  0
          28  102  0
          29  102  0
          30  102  0
          31  102  0
          32  102  0
          33  102  0
          34  102  0
          35  102  0
          36  102  0
          37  102  0
          38  102  0
          39  102  0
          40  102  0
          41  102  0
          42  102  0
          43  102  0
          44  102  0
          45  102  0
          46  102  0
          47  102  0
          48  102  0
          49  102  0
          50  102  0
          51  102  0
          52  102  0
          53  102  0
          54  102  0
          55  102  0
          56  102  0
          57  102  0
          58  102  0
          59  102  0
          60  102  0
          61  102  0
          62  102  0
          63  102  0
          64  102  0
          65  102  0
          66  102  0
          67  102  0
          68  102  0
          69  102  0
          70  102  0
          71  102  0
          72  102  0
          73  102  0
          74  102  0
          75  102  0
          76  102  0
          77  102  0
          78  102  0
          79  102  0
          80  102  0
          81  102  0
          82  102  0
          83  102  0
          84  102  0
          85  102  0
          86  102  0
          87  102  0
          88  102  0
          89  102  0
          90  102  0
          91  102  0
          92  102  0
          93  102  0
          94  102  0
          95  102  0
          96  102  0
          97  102  0
          98  102  0
          99  102  0
          100  102  0
          101  102  0
          102  102  0
          103  102  0
          104  102  0
          105  102  0
          106  102  0
          107  102  0
          108  102  0
          109  102  0
          110  102  0
          111  102  0
          112  102  0
          113  102  0
          114  102  0
          115  102  0
          116  102  0
          117  102  0
          118  102  0
          119  102  0
          120  102  0
          121  102  0
          122  102  0
          123  102  0
          124  102  0
          125  102  0
          126  102  0
          127  102  0
          128  102  0
          129  102  0
          130  102  0
          131  102  0
          132  102  0
          133  102  0
          134  102  0
          135  102  0
          136  102  0
          137  102  0
          138  102  0
          139  102  0
          140  102  0
          141  102  0
          142  102  0
          143  102  0
          144  102  0
          145  102  0
          146  102  0
          147  102  0
          148  102  0
[...]
      <PointData Scalars="phi muPhi" Vectors="U h">
        <DataArray type="Float32" Name="phi" format="ascii">
          -1
          -1
          -1
          -1
          -1
          -1
          -1
          -1
          -1
          1
          1
          1
          1
          1
          1
          1
          1
          1
          1
          1
          1
          1
          1
          1
          1
          1
          1
          1
          1
          1
          1
          1
          1
          1
          1
          1
          1
          1
          1
          1
          1
          1
          1
          1
          1
          1
          1
          1
          1
          1
          1
          1
          1
          1
          1
          1
          1
          1
          1
          1
          1
          1
          1
          1
          1
          1
          1
          1
          1
          1
          1
          1
          1
          1
          1
          1
          1
          1
          1
          1
          1
          -1
          -1
          -1
          -1
          -1
          -1
          -1
          -1
          -1
          -1
          -1
          -1
          -1
          -1
          -1
          -1
          -1
          -1
          -1
          -1
          -1
          -1
          -1
          -1
          -1
          -1
          -1
          -1
          -1
          -1
          -1
          -1
          -1
          -1
          -1
          -1
          -1
          -1
          -1
          -1
          -1
          1
          1
          1
          1
          1
          1
          1
          1
          1
          1
          1
          1
          1
          1
          1
          1
          1
          1
          1
          1
          1
          1
          1
          1
          1
          1
          1
          1
          1
          1
          1
          1
          1
          1
          1
          1
          1
          1
          1
          1
          1
          1
          1
          1
          1
          1
          1
          1
          1
          1
          1
          1
          1
          1
          1
          1
          1
          1
          1
          1
          1
          1
          1
          1
          1
          1
          1
          1
          1
          1
          1
          1
          1
          1
          1
          1
          1
          1
          1
          1
          1
          1
          1
          1
          1
          1
          1
          1
          1
          1
          1
          1
          1
          1
          1
          1
          1
          1
          1
          1
          1
          1
          1
          1
          1
          1
          1
          1
          1
          1
          1
          1
          1
          1
          1
          1
          1
          1
          1
          1
          1
          1
          1
          1
          1
          1
          1
          1
          1
          1
          1
          1
          1
          1
          1
          1
          1
          1
          1
          1
          1
          1
          1
          1
          1
          1
          1
          1
          1
          1
          1
          1
          1
          1
          1
          1
          1
          1
          1
          -1
          -1
          -1
          -1
          -1
          -1
          -1
          -1
          -1
          -1
          -1
          -1
          -1
          -1
          -1
          -1
          -1
          -1
          -1
          -1
          -1
          -1
          -1
          -1
          -1
          -1
          -1
          -1
          -1
          -1
          -1
          -1
          -1
          -1
          -1
          -1
          -1
          -1
          -1
          -1
          -1
          -1
          1
          1
          1
          1
          1
          1
          1
          1
          1
          1
          1
          1
          1
          1
          1
          1
          1
          1
          1
          1
          1
          1
          1
          1
          1
          1
          1
          1
          1
          1
          1
          1
          1
          1
          1
          1
          1
          1
          1
          1
          1
          1
          1
          1
          1
          1
          1
          1
          1
          1
          1
          1
          1
          1
          1
          1
          1
          1
          1
          1
          1
          1
          1
          1
          1
          1
          1
          1
          1
          1
          1
          1
          1
          1
          1
          1
          1
          1
          1
          1
          1
          1
          1
          1
          1
          1
          1
          1
          1
          1
          1
          1
          1
          1
          1
          1
          1
          1
          1
          1
          1
          1
          1
          1
          1
          1
          1
          1
          1
          1
          1
          1
          1
          1
          1
          1
          1
          1
          1
          1
          1
          1
          1
          1
          1
          1
          1
          1
          1
          1
          1
          1
          1
          1
          1
          1
          1
          1
          1
          1
          1
          1
          1
          1
          1
          1
          1
          1
          1
          1
          1
          1
          1
          1
          1
          1
          1
          1
          1
          -1
          -1
          -1
          -1
          -1
          -1
          -1
          -1
          -1
          -1
          -1
          -1
          -1
          -1
          -1
          -1
          -1
          -1
          -1
          -1
          -1
          -1
          -1
          -1
          -1
          -1
          -1
          -1
          -1
          -1
          -1
          -1
          -1
          -1
          -1
          -1
          -1
          -1
          -1
          -1
          -1
          -1
          1
          1
          1
          1
          1
          1
          1
          1
          1
          1
          1
          1
          1
          1
          1
          1
          1
          1
          1
          1
          1
          1
          1
          1
          1
          1
          1
          1
          1
          1
          1
          1
          1
          1
          1
          1
          1
          1
          1
          1
          1
          1
          1
          1
          1
          1
          1
          1
          1
          1
          1
          1
          1
          1
          1
          1
          1
          1
          1
          1
          1
          1
          1
          1
          1
          1
          1
          1
          1
          1
          1
          1
          1
          1
          1
          1
          1
          1
          1
          1
          1
          1
          1
          1
          1
          1
          1
          1
          1
          1
          1
          1
          1
          1
          1
          1
          1
          1
          1
          1
          1
          1
          1
          1
          1
          1
          1
          1
          1
          1
          1
          1
          1
          1
          1
          1
          1
          1
          1
          1
          1
          1
          1
          1
          1
          1
          1
          1
          1
          1
          1
          1
          1
          1
          1
          1
          1
          1
          1
          1
          1
          1
          1
          1
          1
          1
          1
          1
          1
          1
          1
          1
          1
          1
          1
          1
          1
          1
          1
          -1
          -1
          -1
          -1
          -1
          -1
          -1
          -1
          -1
          -1
          -1
          -1
          -1
          -1
          -1
          -1
          -1
          -1
          -1
          -1
          -1
          -1
          -1
          -1
          -1
          -1
          -1
          -1
          -1
          -1
          -1
          -1
          -1
          -1
          -1
          -1
          -1
          -1
          -1
          -1
          -1
          -1
          1
          1
          1
          1
          1
          1
          1
          1
          1
          1
          1
          1
          1
          1
          1
          1
          1
          1
          1
          1
          1
          1
          1
          1
          1
          1
          1
          1
          1
          1
          1
          1
          1
          1
          1
          1
          1
          1
          1
          1
          1
          1
          1
          1
          1
          1
          1
          1
          1
          1
          1
          1
          1
          1
          1
          1
          1
          1
          1
          1
          1
          1
          1
          1
          1
          1
          1
          1
          1
          1
          1
          1
          1
          1
          1
          1
          1
          1
          1
          1
          1
          1
          1
          1
          1
          1
          1
          1
          1
          1
          1
          1
          1
          1
          1
          1
          1
          1
          1
          1
          1
          1
          1
          1
          1
          1
          1
          1
          1
          1
          1
          1
          1
          1
          1
          1
          1
          1
          1
          1
          1
          1
          1
          1
          1
          1
          1
          1
          1
          1
          1
          1
          1
          1
          1
          1
          1
          1
          1
          1
          1
          1
          1
          1
          1
          1
          1
          1
          1
          1
          1
          1
          1
          1
          1
          1
          1
          1
          1
          -1
          -1
          -1
          -1
          -1
          -1
          -1
          -1
          -1
          -1
          -1
          -1
          -1
          -1
          -1
          -1
          -1
          -1
          -1
          -1
          -1
          -1
          -1
          -1
          -1
          -1
          -1
          -1
          -1
          -1
          -1
          -1
          -1
          -1
          -1
          -1
          -1
          -1
          -1
          -1
          -1
          -1
          1
          1
          1
          1
          1
          1
          1
          1
          1
          1
          1
          1
          1
          1
          1
          1
          1
          1
          1
          1
          1
          1
          1
          1
          1
          1
          1
          1
          1
          1
          1
          1
          1
          1
          1
          1
          1
          1
          1
          1
          1
          1
          1
          1
          1
          1
          1
          1
          1
          1
          1
          1
          1
          1
          1
          1
          1
          1
          1
          1
          1
          1
          1
          1
          1
          1
          1
          1
          1
          1
          1
          1
          1
          1
          1
          1
          1
          1
          1
          1
          1
          1
          1
          1
          1
          1
          1
          1
          1
          1
          1
          1
          1
          1
          1
          1
          1
          1
          1
          1
          1
          1
          1
          1
          1
          1
          1
          1
          1
          1
          1
          1
          1
          1
          1
          1
          1
          1
          1
          1
          1
          1
          1
          1
          1
          1
          1
          1
          1
          1
          1
          1
          1
          1
          1
          1
          1
          1
          1
          1
          1
          1
          1
          1
          1
          1
          1
          1
          1
          1
          1
          1
          1
          1
          1
          1
          1
          1
          1
          -1
          -1
          -1
          -1
          -1
          -1
          -1
          -1
          -1
          -1
          -1
          -1
          -1
          -1
          -1
          -1
          -1
          -1
          -1
          -1
          -1
          -1
          -1
          -1
          -1
          -1
          -1
          -1
          -1
          -1
          -1
          -1
          -1
          -1
          -1
          -1
          -1
          -1
          -1
          -1
          -1
          -1
          1
          1
          1
          1
          1
          1
          1
          1
          1
          1
          1
          1
          1
          1
          1
          1
          1
          1
          1
          1
          1
          1
          1
          1
          1
          1
          1
          1
          1
          1
          1
          1
          1
          1
          1
          1
          1
          1
          1
          1
          1
          1
          1
          1
          1
          1
          1
          1
          1
          1
          1
          1
          1
          1
          1
          1
          1
          1
          1
          1
          1
          1
          1
          1
          1
          1
          1
          1
          1
          1
          1
          1
          1
          1
          1
          1
          1
          1
          1
          1
          1
          1
          1
          1
          1
          1
          1
          1
          1
          1
          1
          1
          1
          1
          1
          1
          1
          1
          1
          1
          1
          1
          1
          1
          1
          1
          1
          1
          1
          1
          1
          1
          1
          1
          1
          1
          1
          1
          1
          1
          1
          1
          1
          1
          1
          1
          1
          1
          1
          1
          1
          1
          1
          1
          1
          1
          1
          1
          1
          1
          1
          1
          1
          1
          1
          1
          1
          1
          1
          1
          1
          1
          1
          1
          1
          1
          1
          1
          1
          -1
          -1
          -1
          -1
          -1
          -1
          -1
          -1
          -1
          -1
          -1
          -1
          -1
          -1
          -1
          -1
          -1
          -1
          -1
          -1
          -1
          -1
          -1
          -1
          -1
          -1
          -1
          -1
          -1
          -1
          -1
          -1
          -1
          -1
          -1
          -1
          -1
          -1
          -1
          -1
          -1
          -1
          1
          1
          1
          1
          1
          1
          1
          1
          1
          1
          1
          1
          1
          1
          1
          1
          1
          1
          1
          1
          1
          1
          1
          1
          1
          1
          1
          1
          1
          1
          1
          1
          1
          1
          1
          1
          1
          1
          1
          1
          1
          1
          1
          1
          1
          1
          1
          1
          1
          1
          1
          1
          1
          1
          1
          1
          1
          1
          1
          1
          1
          1
          1
          1
          1
          1
          1
          1
          1
          1
          1
          1
          1
          1
          1
          1
          1
          1
          1
          1
          1
          1
          1
          1
          1
          1
          1
          1
          1
          1
          1
          1
          1
          1
          1
          1
          1
          1
          1
          1
          1
          1
          1
          1
          1
          1
          1
          1
          1
          1
          1
          1
          1
          1
          1
          1
          1
          1
          1
          1
          1
          1
          1
          1
          1
          1
          1
          1
          1
          1
          1
          1
          1
          1
          1
          1
          1
          1
          1
          1
          1
          1
          1
          1
          1
          1
          1
          1
          1
          1
          1
          1
          1
          1
          1
          1
          1
          1
          1
          -1
          -1
          -1
          -1
          -1
          -1
          -1
          -1
          -1
          -1
          -1
          -1
          -1
          -1
          -1
          -1
          -1
          -1
          -1
          -1
          -1
          -1
          -1
          -1
          -1
          -1
          -1
          -1
          -1
          -1
          -1
          -1
          -1
          -1
          -1
          -1
          -1
          -1
          -1
          -1
          -1
          -1
          1
          1
          1
          1
          1
          1
          1
          1
          1
          1
          1
          1
          1
          1
          1
          1
          1
          1
          1
          1
          1
          1
          1
          1
          1
          1
          1
          1
          1
          1
          1
          1
          1
          1
          1
          1
          1
          1
          1
          1
          1
          1
          1
          1
          1
          1
          1
          1
          1
          1
          1
          1
          1
          1
          1
          1
          1
          1
          1
          1
          1
          1
          1
          1
          1
          1
          1
          1
          1
          1
          1
          1
          1
          1
          1
          1
          1
          1
          1
          1
          1
          1
          1
          1
          1
          1
          1
          1
          1
          1
          1
          1
          1
          1
          1
          1
          1
          1
          1